# Forces      
# CofR        : (0.000000e+00 0.000000e+00 0.000000e+00)
# Time        forces(pressure viscous)	moments(pressure viscous)
0             	((0.000000e+00 0.000000e+00 0.000000e+00) (4.290386e+00 1.192891e+00 3.448546e-20)) ((0.000000e+00 0.000000e+00 0.000000e+00) (-5.964455e-01 2.145193e+00 5.928325e-01))
50            	((4.305125e+01 1.231819e+03 3.882013e-18) (7.801254e+00 2.115970e+00 -2.211723e-19)) ((-6.159097e+02 2.152563e+01 3.931568e+02) (-1.057985e+00 3.900627e+00 4.466138e-01))
100           	((4.025069e+01 1.310857e+03 4.681552e-18) (8.815586e+00 2.295157e+00 -2.555518e-19)) ((-6.554286e+02 2.012534e+01 4.114380e+02) (-1.147579e+00 4.407793e+00 4.641739e-01))
150           	((3.564431e+01 1.359838e+03 5.333446e-18) (9.475998e+00 2.406339e+00 -4.328597e-19)) ((-6.799188e+02 1.782216e+01 4.216400e+02) (-1.203170e+00 4.737999e+00 4.766204e-01))
200           	((3.407595e+01 1.374141e+03 5.507856e-18) (9.680829e+00 2.442503e+00 -4.086759e-19)) ((-6.870705e+02 1.703797e+01 4.246850e+02) (-1.221251e+00 4.840415e+00 4.810569e-01))
250           	((3.362899e+01 1.377891e+03 5.552893e-18) (9.735334e+00 2.452412e+00 -3.920987e-19)) ((-6.889453e+02 1.681449e+01 4.255014e+02) (-1.226206e+00 4.867667e+00 4.823514e-01))
300           	((3.351472e+01 1.378808e+03 5.563648e-18) (9.748398e+00 2.454865e+00 -3.882225e-19)) ((-6.894039e+02 1.675736e+01 4.257066e+02) (-1.227433e+00 4.874199e+00 4.826817e-01))
319           	((3.349973e+01 1.378926e+03 5.565017e-18) (9.750062e+00 2.455182e+00 -3.877347e-19)) ((-6.894630e+02 1.674987e+01 4.257335e+02) (-1.227591e+00 4.875031e+00 4.827249e-01))
