# Forces      
# CofR        : (0.000000e+00 0.000000e+00 0.000000e+00)
# Time        forces(pressure viscous)	moments(pressure viscous)
1000          	((-6.672549e+00 2.325368e+02 5.611653e-19) (4.018571e+00 2.590790e-01 3.948946e-21)) ((-1.162684e+02 -3.336274e+00 -4.129050e+01) (-1.295395e-01 2.009285e+00 1.043334e-01))
1050          	((-1.604554e+02 1.136702e+03 1.473637e-18) (3.032650e+00 6.523508e-01 1.156904e-20)) ((-5.683511e+02 -8.022768e+01 2.256365e+02) (-3.261754e-01 1.516325e+00 1.651590e-01))
1100          	((-2.276763e+02 1.645478e+03 1.764355e-18) (1.783019e+00 7.082906e-01 -4.568817e-21)) ((-8.227388e+02 -1.138381e+02 4.105368e+02) (-3.541453e-01 8.915094e-01 1.974452e-01))
1150          	((-1.869854e+02 1.563989e+03 1.520510e-18) (1.009901e+00 6.269430e-01 1.170714e-20)) ((-7.819946e+02 -9.349272e+01 3.615185e+02) (-3.134715e-01 5.049505e-01 2.429426e-01))
1200          	((-1.221600e+02 1.587883e+03 8.716323e-19) (1.008724e+00 5.489238e-01 -1.487770e-20)) ((-7.939414e+02 -6.108002e+01 3.544379e+02) (-2.744619e-01 5.043619e-01 2.318560e-01))
1250          	((-2.292312e+01 2.555903e+03 9.450175e-19) (7.159828e-02 6.337425e-01 9.681867e-20)) ((-1.277952e+03 -1.146156e+01 1.018655e+03) (-3.168712e-01 3.579914e-02 3.182514e-01))
1300          	((1.567071e+02 -2.958418e+01 -1.795515e-19) (4.028617e+00 1.267861e-01 1.314513e-20)) ((1.479209e+01 7.835357e+01 -9.873385e+01) (-6.339307e-02 2.014309e+00 4.554106e-02))
