# Force coefficients
# liftDir     : (0.000000e+00 1.000000e+00 0.000000e+00)
# dragDir     : (1.000000e+00 0.000000e+00 0.000000e+00)
# pitchAxis   : (0.000000e+00 0.000000e+00 1.000000e+00)
# magUInf     : 5.148150e+01
# lRef        : 1.000000e+00
# Aref        : 1.000000e+00
# CofR        : (0.000000e+00 0.000000e+00 0.000000e+00)
# Time        	Cm            	Cd            	Cl            	Cl(f)         	Cl(r)         
0             	3.651939e-04	2.642943e-03	7.348391e-04	7.326135e-04	2.225672e-06
50            	2.424657e-01	3.132592e-02	7.601231e-01	6.225273e-01	1.375958e-01
100           	2.537381e-01	3.022558e-02	8.089220e-01	6.581991e-01	1.507229e-01
150           	2.600303e-01	2.779480e-02	8.391632e-01	6.796119e-01	1.595513e-01
200           	2.619088e-01	2.695485e-02	8.479965e-01	6.859071e-01	1.620894e-01
250           	2.624125e-01	2.671309e-02	8.503125e-01	6.875687e-01	1.627437e-01
300           	2.625392e-01	2.665075e-02	8.508789e-01	6.879786e-01	1.629003e-01
319           	2.625557e-01	2.664254e-02	8.509519e-01	6.880317e-01	1.629203e-01
